# epsilon and Z* of atoms 1 4 5
   7.10241809    0.00000000    0.00000000    0.00000000    7.10241809    0.00000000    0.00000000    0.00000000    7.10241809 
  -6.06100131    0.00000000    0.00000000    0.00000000   -2.18111891    0.00000000    0.00000000    0.00000000   -2.18111891 
   7.65966512    0.00000000    0.00000000    0.00000000    7.65966512    0.00000000    0.00000000    0.00000000    7.65966512 
   2.76357401    0.00000000    0.00000000    0.00000000    2.76357401    0.00000000    0.00000000    0.00000000    2.76357401 
